s 0.030383233 _42_ RTR  --- 0 message 32 [0 0 0 0] ------- [42:255 -1:255 32 0] 
r 0.031283405 _36_ RTR  --- 0 message 32 [0 ffffffff 2a 800] ------- [42:255 -1:255 32 0] 
r 0.031283449 _39_ RTR  --- 0 message 32 [0 ffffffff 2a 800] ------- [42:255 -1:255 32 0] 
r 0.031283488 _11_ RTR  --- 0 message 32 [0 ffffffff 2a 800] ------- [42:255 -1:255 32 0] 
r 0.031283574 _34_ RTR  --- 0 message 32 [0 ffffffff 2a 800] ------- [42:255 -1:255 32 0] 
r 0.031283591 _22_ RTR  --- 0 message 32 [0 ffffffff 2a 800] ------- [42:255 -1:255 32 0] 
r 0.031283609 _14_ RTR  --- 0 message 32 [0 ffffffff 2a 800] ------- [42:255 -1:255 32 0] 
r 0.031283647 _18_ RTR  --- 0 message 32 [0 ffffffff 2a 800] ------- [42:255 -1:255 32 0] 
r 0.031283666 _16_ RTR  --- 0 message 32 [0 ffffffff 2a 800] ------- [42:255 -1:255 32 0] 
r 0.031283670 _5_ RTR  --- 0 message 32 [0 ffffffff 2a 800] ------- [42:255 -1:255 32 0] 
r 0.031283724 _32_ RTR  --- 0 message 32 [0 ffffffff 2a 800] ------- [42:255 -1:255 32 0] 
r 0.031283732 _15_ RTR  --- 0 message 32 [0 ffffffff 2a 800] ------- [42:255 -1:255 32 0] 
r 0.031283746 _25_ RTR  --- 0 message 32 [0 ffffffff 2a 800] ------- [42:255 -1:255 32 0] 
r 0.031283757 _40_ RTR  --- 0 message 32 [0 ffffffff 2a 800] ------- [42:255 -1:255 32 0] 
r 0.031283763 _4_ RTR  --- 0 message 32 [0 ffffffff 2a 800] ------- [42:255 -1:255 32 0] 
r 0.031283785 _21_ RTR  --- 0 message 32 [0 ffffffff 2a 800] ------- [42:255 -1:255 32 0] 
r 0.031283822 _17_ RTR  --- 0 message 32 [0 ffffffff 2a 800] ------- [42:255 -1:255 32 0] 
r 0.031283829 _3_ RTR  --- 0 message 32 [0 ffffffff 2a 800] ------- [42:255 -1:255 32 0] 
r 0.031283851 _1_ RTR  --- 0 message 32 [0 ffffffff 2a 800] ------- [42:255 -1:255 32 0] 
r 0.031283852 _33_ RTR  --- 0 message 32 [0 ffffffff 2a 800] ------- [42:255 -1:255 32 0] 
r 0.031283862 _27_ RTR  --- 0 message 32 [0 ffffffff 2a 800] ------- [42:255 -1:255 32 0] 
r 0.031283881 _30_ RTR  --- 0 message 32 [0 ffffffff 2a 800] ------- [42:255 -1:255 32 0] 
r 0.031283914 _46_ RTR  --- 0 message 32 [0 ffffffff 2a 800] ------- [42:255 -1:255 32 0] 
r 0.031283953 _35_ RTR  --- 0 message 32 [0 ffffffff 2a 800] ------- [42:255 -1:255 32 0] 
r 0.031284057 _43_ RTR  --- 0 message 32 [0 ffffffff 2a 800] ------- [42:255 -1:255 32 0] 
s 0.033957718 _0_ RTR  --- 1 message 32 [0 0 0 0] ------- [0:255 -1:255 32 0] 
r 0.034777843 _9_ RTR  --- 1 message 32 [0 ffffffff 0 800] ------- [0:255 -1:255 32 0] 
r 0.034777945 _6_ RTR  --- 1 message 32 [0 ffffffff 0 800] ------- [0:255 -1:255 32 0] 
r 0.034777969 _48_ RTR  --- 1 message 32 [0 ffffffff 0 800] ------- [0:255 -1:255 32 0] 
r 0.034778028 _49_ RTR  --- 1 message 32 [0 ffffffff 0 800] ------- [0:255 -1:255 32 0] 
r 0.034778041 _47_ RTR  --- 1 message 32 [0 ffffffff 0 800] ------- [0:255 -1:255 32 0] 
r 0.034778130 _44_ RTR  --- 1 message 32 [0 ffffffff 0 800] ------- [0:255 -1:255 32 0] 
r 0.034778252 _43_ RTR  --- 1 message 32 [0 ffffffff 0 800] ------- [0:255 -1:255 32 0] 
r 0.034778294 _20_ RTR  --- 1 message 32 [0 ffffffff 0 800] ------- [0:255 -1:255 32 0] 
r 0.034778307 _35_ RTR  --- 1 message 32 [0 ffffffff 0 800] ------- [0:255 -1:255 32 0] 
r 0.034778307 _10_ RTR  --- 1 message 32 [0 ffffffff 0 800] ------- [0:255 -1:255 32 0] 
r 0.034778336 _41_ RTR  --- 1 message 32 [0 ffffffff 0 800] ------- [0:255 -1:255 32 0] 
r 0.034778437 _28_ RTR  --- 1 message 32 [0 ffffffff 0 800] ------- [0:255 -1:255 32 0] 
r 0.034778443 _27_ RTR  --- 1 message 32 [0 ffffffff 0 800] ------- [0:255 -1:255 32 0] 
r 0.034778459 _38_ RTR  --- 1 message 32 [0 ffffffff 0 800] ------- [0:255 -1:255 32 0] 
r 0.034778471 _30_ RTR  --- 1 message 32 [0 ffffffff 0 800] ------- [0:255 -1:255 32 0] 
r 0.034778551 _13_ RTR  --- 1 message 32 [0 ffffffff 0 800] ------- [0:255 -1:255 32 0] 
s 0.095057277 _11_ RTR  --- 2 message 32 [0 0 0 0] ------- [11:255 -1:255 32 0] 
r 0.095897387 _34_ RTR  --- 2 message 32 [0 ffffffff b 800] ------- [11:255 -1:255 32 0] 
r 0.095897387 _39_ RTR  --- 2 message 32 [0 ffffffff b 800] ------- [11:255 -1:255 32 0] 
r 0.095897532 _42_ RTR  --- 2 message 32 [0 ffffffff b 800] ------- [11:255 -1:255 32 0] 
r 0.095897537 _25_ RTR  --- 2 message 32 [0 ffffffff b 800] ------- [11:255 -1:255 32 0] 
r 0.095897547 _40_ RTR  --- 2 message 32 [0 ffffffff b 800] ------- [11:255 -1:255 32 0] 
r 0.095897568 _15_ RTR  --- 2 message 32 [0 ffffffff b 800] ------- [11:255 -1:255 32 0] 
r 0.095897617 _36_ RTR  --- 2 message 32 [0 ffffffff b 800] ------- [11:255 -1:255 32 0] 
r 0.095897716 _14_ RTR  --- 2 message 32 [0 ffffffff b 800] ------- [11:255 -1:255 32 0] 
r 0.095897726 _3_ RTR  --- 2 message 32 [0 ffffffff b 800] ------- [11:255 -1:255 32 0] 
r 0.095897743 _17_ RTR  --- 2 message 32 [0 ffffffff b 800] ------- [11:255 -1:255 32 0] 
r 0.095897746 _1_ RTR  --- 2 message 32 [0 ffffffff b 800] ------- [11:255 -1:255 32 0] 
r 0.095897782 _22_ RTR  --- 2 message 32 [0 ffffffff b 800] ------- [11:255 -1:255 32 0] 
r 0.095897800 _4_ RTR  --- 2 message 32 [0 ffffffff b 800] ------- [11:255 -1:255 32 0] 
r 0.095897884 _18_ RTR  --- 2 message 32 [0 ffffffff b 800] ------- [11:255 -1:255 32 0] 
r 0.095897893 _33_ RTR  --- 2 message 32 [0 ffffffff b 800] ------- [11:255 -1:255 32 0] 
r 0.095897909 _32_ RTR  --- 2 message 32 [0 ffffffff b 800] ------- [11:255 -1:255 32 0] 
r 0.095897929 _5_ RTR  --- 2 message 32 [0 ffffffff b 800] ------- [11:255 -1:255 32 0] 
r 0.095897962 _16_ RTR  --- 2 message 32 [0 ffffffff b 800] ------- [11:255 -1:255 32 0] 
r 0.095897972 _46_ RTR  --- 2 message 32 [0 ffffffff b 800] ------- [11:255 -1:255 32 0] 
r 0.095898037 _21_ RTR  --- 2 message 32 [0 ffffffff b 800] ------- [11:255 -1:255 32 0] 
s 0.118592534 _41_ RTR  --- 3 message 32 [0 0 0 0] ------- [41:255 -1:255 32 0] 
r 0.119712813 _10_ RTR  --- 3 message 32 [0 ffffffff 29 800] ------- [41:255 -1:255 32 0] 
r 0.119712845 _49_ RTR  --- 3 message 32 [0 ffffffff 29 800] ------- [41:255 -1:255 32 0] 
r 0.119712859 _28_ RTR  --- 3 message 32 [0 ffffffff 29 800] ------- [41:255 -1:255 32 0] 
r 0.119712970 _37_ RTR  --- 3 message 32 [0 ffffffff 29 800] ------- [41:255 -1:255 32 0] 
r 0.119713126 _8_ RTR  --- 3 message 32 [0 ffffffff 29 800] ------- [41:255 -1:255 32 0] 
r 0.119713152 _0_ RTR  --- 3 message 32 [0 ffffffff 29 800] ------- [41:255 -1:255 32 0] 
r 0.119713234 _9_ RTR  --- 3 message 32 [0 ffffffff 29 800] ------- [41:255 -1:255 32 0] 
r 0.119713304 _6_ RTR  --- 3 message 32 [0 ffffffff 29 800] ------- [41:255 -1:255 32 0] 
r 0.119713340 _30_ RTR  --- 3 message 32 [0 ffffffff 29 800] ------- [41:255 -1:255 32 0] 
r 0.119713366 _48_ RTR  --- 3 message 32 [0 ffffffff 29 800] ------- [41:255 -1:255 32 0] 
s 0.176746677 _1_ RTR  --- 4 message 32 [0 0 0 0] ------- [1:255 -1:255 32 0] 
r 0.177766743 _17_ RTR  --- 4 message 32 [0 ffffffff 1 800] ------- [1:255 -1:255 32 0] 
r 0.177767045 _34_ RTR  --- 4 message 32 [0 ffffffff 1 800] ------- [1:255 -1:255 32 0] 
r 0.177767095 _39_ RTR  --- 4 message 32 [0 ffffffff 1 800] ------- [1:255 -1:255 32 0] 
r 0.177767096 _40_ RTR  --- 4 message 32 [0 ffffffff 1 800] ------- [1:255 -1:255 32 0] 
r 0.177767099 _14_ RTR  --- 4 message 32 [0 ffffffff 1 800] ------- [1:255 -1:255 32 0] 
r 0.177767146 _11_ RTR  --- 4 message 32 [0 ffffffff 1 800] ------- [1:255 -1:255 32 0] 
r 0.177767146 _25_ RTR  --- 4 message 32 [0 ffffffff 1 800] ------- [1:255 -1:255 32 0] 
r 0.177767230 _36_ RTR  --- 4 message 32 [0 ffffffff 1 800] ------- [1:255 -1:255 32 0] 
r 0.177767252 _22_ RTR  --- 4 message 32 [0 ffffffff 1 800] ------- [1:255 -1:255 32 0] 
r 0.177767295 _42_ RTR  --- 4 message 32 [0 ffffffff 1 800] ------- [1:255 -1:255 32 0] 
r 0.177767306 _32_ RTR  --- 4 message 32 [0 ffffffff 1 800] ------- [1:255 -1:255 32 0] 
r 0.177767318 _15_ RTR  --- 4 message 32 [0 ffffffff 1 800] ------- [1:255 -1:255 32 0] 
s 0.192489910 _17_ RTR  --- 5 message 32 [0 0 0 0] ------- [17:255 -1:255 32 0] 
r 0.193509976 _1_ RTR  --- 5 message 32 [0 ffffffff 11 800] ------- [17:255 -1:255 32 0] 
r 0.193510273 _14_ RTR  --- 5 message 32 [0 ffffffff 11 800] ------- [17:255 -1:255 32 0] 
r 0.193510283 _34_ RTR  --- 5 message 32 [0 ffffffff 11 800] ------- [17:255 -1:255 32 0] 
r 0.193510311 _39_ RTR  --- 5 message 32 [0 ffffffff 11 800] ------- [17:255 -1:255 32 0] 
r 0.193510364 _40_ RTR  --- 5 message 32 [0 ffffffff 11 800] ------- [17:255 -1:255 32 0] 
r 0.193510375 _11_ RTR  --- 5 message 32 [0 ffffffff 11 800] ------- [17:255 -1:255 32 0] 
r 0.193510411 _25_ RTR  --- 5 message 32 [0 ffffffff 11 800] ------- [17:255 -1:255 32 0] 
r 0.193510418 _36_ RTR  --- 5 message 32 [0 ffffffff 11 800] ------- [17:255 -1:255 32 0] 
r 0.193510427 _22_ RTR  --- 5 message 32 [0 ffffffff 11 800] ------- [17:255 -1:255 32 0] 
r 0.193510475 _32_ RTR  --- 5 message 32 [0 ffffffff 11 800] ------- [17:255 -1:255 32 0] 
r 0.193510499 _42_ RTR  --- 5 message 32 [0 ffffffff 11 800] ------- [17:255 -1:255 32 0] 
r 0.193510575 _15_ RTR  --- 5 message 32 [0 ffffffff 11 800] ------- [17:255 -1:255 32 0] 
r 0.193510705 _21_ RTR  --- 5 message 32 [0 ffffffff 11 800] ------- [17:255 -1:255 32 0] 
s 0.225677362 _34_ RTR  --- 6 message 32 [0 0 0 0] ------- [34:255 -1:255 32 0] 
r 0.227077471 _11_ RTR  --- 6 message 32 [0 ffffffff 22 800] ------- [34:255 -1:255 32 0] 
r 0.227077499 _39_ RTR  --- 6 message 32 [0 ffffffff 22 800] ------- [34:255 -1:255 32 0] 
r 0.227077563 _40_ RTR  --- 6 message 32 [0 ffffffff 22 800] ------- [34:255 -1:255 32 0] 
r 0.227077574 _25_ RTR  --- 6 message 32 [0 ffffffff 22 800] ------- [34:255 -1:255 32 0] 
r 0.227077676 _15_ RTR  --- 6 message 32 [0 ffffffff 22 800] ------- [34:255 -1:255 32 0] 
r 0.227077702 _42_ RTR  --- 6 message 32 [0 ffffffff 22 800] ------- [34:255 -1:255 32 0] 
r 0.227077730 _1_ RTR  --- 6 message 32 [0 ffffffff 22 800] ------- [34:255 -1:255 32 0] 
r 0.227077735 _17_ RTR  --- 6 message 32 [0 ffffffff 22 800] ------- [34:255 -1:255 32 0] 
r 0.227077746 _36_ RTR  --- 6 message 32 [0 ffffffff 22 800] ------- [34:255 -1:255 32 0] 
r 0.227077788 _14_ RTR  --- 6 message 32 [0 ffffffff 22 800] ------- [34:255 -1:255 32 0] 
r 0.227077862 _3_ RTR  --- 6 message 32 [0 ffffffff 22 800] ------- [34:255 -1:255 32 0] 
r 0.227077884 _22_ RTR  --- 6 message 32 [0 ffffffff 22 800] ------- [34:255 -1:255 32 0] 
r 0.227077979 _4_ RTR  --- 6 message 32 [0 ffffffff 22 800] ------- [34:255 -1:255 32 0] 
r 0.227078000 _32_ RTR  --- 6 message 32 [0 ffffffff 22 800] ------- [34:255 -1:255 32 0] 
r 0.227078071 _33_ RTR  --- 6 message 32 [0 ffffffff 22 800] ------- [34:255 -1:255 32 0] 
r 0.227078076 _18_ RTR  --- 6 message 32 [0 ffffffff 22 800] ------- [34:255 -1:255 32 0] 
r 0.227078118 _5_ RTR  --- 6 message 32 [0 ffffffff 22 800] ------- [34:255 -1:255 32 0] 
r 0.227078120 _16_ RTR  --- 6 message 32 [0 ffffffff 22 800] ------- [34:255 -1:255 32 0] 
r 0.227078152 _46_ RTR  --- 6 message 32 [0 ffffffff 22 800] ------- [34:255 -1:255 32 0] 
r 0.227078158 _21_ RTR  --- 6 message 32 [0 ffffffff 22 800] ------- [34:255 -1:255 32 0] 
s 0.229923756 _40_ RTR  --- 7 message 32 [0 0 0 0] ------- [40:255 -1:255 32 0] 
r 0.231283810 _25_ RTR  --- 7 message 32 [0 ffffffff 28 800] ------- [40:255 -1:255 32 0] 
r 0.231283958 _34_ RTR  --- 7 message 32 [0 ffffffff 28 800] ------- [40:255 -1:255 32 0] 
r 0.231283997 _15_ RTR  --- 7 message 32 [0 ffffffff 28 800] ------- [40:255 -1:255 32 0] 
r 0.231284026 _11_ RTR  --- 7 message 32 [0 ffffffff 28 800] ------- [40:255 -1:255 32 0] 
r 0.231284094 _39_ RTR  --- 7 message 32 [0 ffffffff 28 800] ------- [40:255 -1:255 32 0] 
r 0.231284176 _1_ RTR  --- 7 message 32 [0 ffffffff 28 800] ------- [40:255 -1:255 32 0] 
r 0.231284195 _3_ RTR  --- 7 message 32 [0 ffffffff 28 800] ------- [40:255 -1:255 32 0] 
r 0.231284211 _17_ RTR  --- 7 message 32 [0 ffffffff 28 800] ------- [40:255 -1:255 32 0] 
r 0.231284280 _42_ RTR  --- 7 message 32 [0 ffffffff 28 800] ------- [40:255 -1:255 32 0] 
r 0.231284341 _36_ RTR  --- 7 message 32 [0 ffffffff 28 800] ------- [40:255 -1:255 32 0] 
r 0.231284369 _14_ RTR  --- 7 message 32 [0 ffffffff 28 800] ------- [40:255 -1:255 32 0] 
r 0.231284405 _4_ RTR  --- 7 message 32 [0 ffffffff 28 800] ------- [40:255 -1:255 32 0] 
r 0.231284477 _22_ RTR  --- 7 message 32 [0 ffffffff 28 800] ------- [40:255 -1:255 32 0] 
r 0.231284487 _33_ RTR  --- 7 message 32 [0 ffffffff 28 800] ------- [40:255 -1:255 32 0] 
r 0.231284572 _46_ RTR  --- 7 message 32 [0 ffffffff 28 800] ------- [40:255 -1:255 32 0] 
r 0.231284588 _32_ RTR  --- 7 message 32 [0 ffffffff 28 800] ------- [40:255 -1:255 32 0] 
s 0.233200583 _13_ RTR  --- 8 message 32 [0 0 0 0] ------- [13:255 -1:255 32 0] 
r 0.234320712 _2_ RTR  --- 8 message 32 [0 ffffffff d 800] ------- [13:255 -1:255 32 0] 
r 0.234320760 _38_ RTR  --- 8 message 32 [0 ffffffff d 800] ------- [13:255 -1:255 32 0] 
r 0.234320846 _20_ RTR  --- 8 message 32 [0 ffffffff d 800] ------- [13:255 -1:255 32 0] 
r 0.234320925 _7_ RTR  --- 8 message 32 [0 ffffffff d 800] ------- [13:255 -1:255 32 0] 
r 0.234320943 _45_ RTR  --- 8 message 32 [0 ffffffff d 800] ------- [13:255 -1:255 32 0] 
r 0.234321022 _29_ RTR  --- 8 message 32 [0 ffffffff d 800] ------- [13:255 -1:255 32 0] 
r 0.234321043 _31_ RTR  --- 8 message 32 [0 ffffffff d 800] ------- [13:255 -1:255 32 0] 
r 0.234321117 _44_ RTR  --- 8 message 32 [0 ffffffff d 800] ------- [13:255 -1:255 32 0] 
r 0.234321161 _26_ RTR  --- 8 message 32 [0 ffffffff d 800] ------- [13:255 -1:255 32 0] 
r 0.234321242 _43_ RTR  --- 8 message 32 [0 ffffffff d 800] ------- [13:255 -1:255 32 0] 
r 0.234321250 _6_ RTR  --- 8 message 32 [0 ffffffff d 800] ------- [13:255 -1:255 32 0] 
r 0.234321300 _48_ RTR  --- 8 message 32 [0 ffffffff d 800] ------- [13:255 -1:255 32 0] 
r 0.234321339 _27_ RTR  --- 8 message 32 [0 ffffffff d 800] ------- [13:255 -1:255 32 0] 
r 0.234321343 _47_ RTR  --- 8 message 32 [0 ffffffff d 800] ------- [13:255 -1:255 32 0] 
r 0.234321383 _9_ RTR  --- 8 message 32 [0 ffffffff d 800] ------- [13:255 -1:255 32 0] 
r 0.234321416 _0_ RTR  --- 8 message 32 [0 ffffffff d 800] ------- [13:255 -1:255 32 0] 
s 0.251668222 _45_ RTR  --- 9 message 32 [0 0 0 0] ------- [45:255 -1:255 32 0] 
r 0.253068390 _7_ RTR  --- 9 message 32 [0 ffffffff 2d 800] ------- [45:255 -1:255 32 0] 
r 0.253068500 _26_ RTR  --- 9 message 32 [0 ffffffff 2d 800] ------- [45:255 -1:255 32 0] 
r 0.253068504 _2_ RTR  --- 9 message 32 [0 ffffffff 2d 800] ------- [45:255 -1:255 32 0] 
r 0.253068582 _13_ RTR  --- 9 message 32 [0 ffffffff 2d 800] ------- [45:255 -1:255 32 0] 
r 0.253068592 _29_ RTR  --- 9 message 32 [0 ffffffff 2d 800] ------- [45:255 -1:255 32 0] 
r 0.253068616 _38_ RTR  --- 9 message 32 [0 ffffffff 2d 800] ------- [45:255 -1:255 32 0] 
r 0.253068659 _31_ RTR  --- 9 message 32 [0 ffffffff 2d 800] ------- [45:255 -1:255 32 0] 
r 0.253068813 _23_ RTR  --- 9 message 32 [0 ffffffff 2d 800] ------- [45:255 -1:255 32 0] 
r 0.253068825 _20_ RTR  --- 9 message 32 [0 ffffffff 2d 800] ------- [45:255 -1:255 32 0] 
r 0.253068841 _24_ RTR  --- 9 message 32 [0 ffffffff 2d 800] ------- [45:255 -1:255 32 0] 
r 0.253068902 _19_ RTR  --- 9 message 32 [0 ffffffff 2d 800] ------- [45:255 -1:255 32 0] 
r 0.253068987 _44_ RTR  --- 9 message 32 [0 ffffffff 2d 800] ------- [45:255 -1:255 32 0] 
r 0.253069014 _12_ RTR  --- 9 message 32 [0 ffffffff 2d 800] ------- [45:255 -1:255 32 0] 
r 0.253069029 _5_ RTR  --- 9 message 32 [0 ffffffff 2d 800] ------- [45:255 -1:255 32 0] 
r 0.253069031 _43_ RTR  --- 9 message 32 [0 ffffffff 2d 800] ------- [45:255 -1:255 32 0] 
r 0.253069039 _18_ RTR  --- 9 message 32 [0 ffffffff 2d 800] ------- [45:255 -1:255 32 0] 
r 0.253069042 _27_ RTR  --- 9 message 32 [0 ffffffff 2d 800] ------- [45:255 -1:255 32 0] 
s 0.331612957 _10_ RTR  --- 10 message 32 [0 0 0 0] ------- [10:255 -1:255 32 0] 
r 0.332873087 _28_ RTR  --- 10 message 32 [0 ffffffff a 800] ------- [10:255 -1:255 32 0] 
r 0.332873237 _41_ RTR  --- 10 message 32 [0 ffffffff a 800] ------- [10:255 -1:255 32 0] 
r 0.332873269 _37_ RTR  --- 10 message 32 [0 ffffffff a 800] ------- [10:255 -1:255 32 0] 
r 0.332873325 _49_ RTR  --- 10 message 32 [0 ffffffff a 800] ------- [10:255 -1:255 32 0] 
r 0.332873402 _8_ RTR  --- 10 message 32 [0 ffffffff a 800] ------- [10:255 -1:255 32 0] 
r 0.332873490 _30_ RTR  --- 10 message 32 [0 ffffffff a 800] ------- [10:255 -1:255 32 0] 
r 0.332873547 _0_ RTR  --- 10 message 32 [0 ffffffff a 800] ------- [10:255 -1:255 32 0] 
r 0.332873561 _35_ RTR  --- 10 message 32 [0 ffffffff a 800] ------- [10:255 -1:255 32 0] 
r 0.332873613 _21_ RTR  --- 10 message 32 [0 ffffffff a 800] ------- [10:255 -1:255 32 0] 
r 0.332873619 _6_ RTR  --- 10 message 32 [0 ffffffff a 800] ------- [10:255 -1:255 32 0] 
r 0.332873661 _9_ RTR  --- 10 message 32 [0 ffffffff a 800] ------- [10:255 -1:255 32 0] 
r 0.332873706 _43_ RTR  --- 10 message 32 [0 ffffffff a 800] ------- [10:255 -1:255 32 0] 
r 0.332873736 _16_ RTR  --- 10 message 32 [0 ffffffff a 800] ------- [10:255 -1:255 32 0] 
r 0.332873749 _44_ RTR  --- 10 message 32 [0 ffffffff a 800] ------- [10:255 -1:255 32 0] 
s 0.353262981 _16_ RTR  --- 11 message 32 [0 0 0 0] ------- [16:255 -1:255 32 0] 
r 0.354303233 _30_ RTR  --- 11 message 32 [0 ffffffff 10 800] ------- [16:255 -1:255 32 0] 
r 0.354303275 _35_ RTR  --- 11 message 32 [0 ffffffff 10 800] ------- [16:255 -1:255 32 0] 
r 0.354303275 _21_ RTR  --- 11 message 32 [0 ffffffff 10 800] ------- [16:255 -1:255 32 0] 
r 0.354303278 _27_ RTR  --- 11 message 32 [0 ffffffff 10 800] ------- [16:255 -1:255 32 0] 
r 0.354303350 _5_ RTR  --- 11 message 32 [0 ffffffff 10 800] ------- [16:255 -1:255 32 0] 
r 0.354303376 _36_ RTR  --- 11 message 32 [0 ffffffff 10 800] ------- [16:255 -1:255 32 0] 
r 0.354303381 _22_ RTR  --- 11 message 32 [0 ffffffff 10 800] ------- [16:255 -1:255 32 0] 
r 0.354303410 _18_ RTR  --- 11 message 32 [0 ffffffff 10 800] ------- [16:255 -1:255 32 0] 
r 0.354303414 _42_ RTR  --- 11 message 32 [0 ffffffff 10 800] ------- [16:255 -1:255 32 0] 
r 0.354303428 _43_ RTR  --- 11 message 32 [0 ffffffff 10 800] ------- [16:255 -1:255 32 0] 
r 0.354303432 _32_ RTR  --- 11 message 32 [0 ffffffff 10 800] ------- [16:255 -1:255 32 0] 
r 0.354303524 _14_ RTR  --- 11 message 32 [0 ffffffff 10 800] ------- [16:255 -1:255 32 0] 
r 0.354303602 _39_ RTR  --- 11 message 32 [0 ffffffff 10 800] ------- [16:255 -1:255 32 0] 
r 0.354303627 _44_ RTR  --- 11 message 32 [0 ffffffff 10 800] ------- [16:255 -1:255 32 0] 
r 0.354303639 _31_ RTR  --- 11 message 32 [0 ffffffff 10 800] ------- [16:255 -1:255 32 0] 
r 0.354303666 _11_ RTR  --- 11 message 32 [0 ffffffff 10 800] ------- [16:255 -1:255 32 0] 
r 0.354303700 _6_ RTR  --- 11 message 32 [0 ffffffff 10 800] ------- [16:255 -1:255 32 0] 
r 0.354303704 _29_ RTR  --- 11 message 32 [0 ffffffff 10 800] ------- [16:255 -1:255 32 0] 
r 0.354303739 _34_ RTR  --- 11 message 32 [0 ffffffff 10 800] ------- [16:255 -1:255 32 0] 
r 0.354303759 _10_ RTR  --- 11 message 32 [0 ffffffff 10 800] ------- [16:255 -1:255 32 0] 
r 0.354303791 _28_ RTR  --- 11 message 32 [0 ffffffff 10 800] ------- [16:255 -1:255 32 0] 
r 0.354303798 _4_ RTR  --- 11 message 32 [0 ffffffff 10 800] ------- [16:255 -1:255 32 0] 
s 0.383543058 _36_ RTR  --- 12 message 32 [0 0 0 0] ------- [36:255 -1:255 32 0] 
r 0.384683230 _42_ RTR  --- 12 message 32 [0 ffffffff 24 800] ------- [36:255 -1:255 32 0] 
r 0.384683246 _22_ RTR  --- 12 message 32 [0 ffffffff 24 800] ------- [36:255 -1:255 32 0] 
r 0.384683278 _14_ RTR  --- 12 message 32 [0 ffffffff 24 800] ------- [36:255 -1:255 32 0] 
r 0.384683306 _39_ RTR  --- 12 message 32 [0 ffffffff 24 800] ------- [36:255 -1:255 32 0] 
r 0.384683380 _32_ RTR  --- 12 message 32 [0 ffffffff 24 800] ------- [36:255 -1:255 32 0] 
r 0.384683398 _11_ RTR  --- 12 message 32 [0 ffffffff 24 800] ------- [36:255 -1:255 32 0] 
r 0.384683442 _34_ RTR  --- 12 message 32 [0 ffffffff 24 800] ------- [36:255 -1:255 32 0] 
r 0.384683453 _16_ RTR  --- 12 message 32 [0 ffffffff 24 800] ------- [36:255 -1:255 32 0] 
r 0.384683478 _21_ RTR  --- 12 message 32 [0 ffffffff 24 800] ------- [36:255 -1:255 32 0] 
r 0.384683567 _17_ RTR  --- 12 message 32 [0 ffffffff 24 800] ------- [36:255 -1:255 32 0] 
r 0.384683593 _18_ RTR  --- 12 message 32 [0 ffffffff 24 800] ------- [36:255 -1:255 32 0] 
r 0.384683593 _5_ RTR  --- 12 message 32 [0 ffffffff 24 800] ------- [36:255 -1:255 32 0] 
r 0.384683611 _1_ RTR  --- 12 message 32 [0 ffffffff 24 800] ------- [36:255 -1:255 32 0] 
r 0.384683617 _30_ RTR  --- 12 message 32 [0 ffffffff 24 800] ------- [36:255 -1:255 32 0] 
r 0.384683643 _40_ RTR  --- 12 message 32 [0 ffffffff 24 800] ------- [36:255 -1:255 32 0] 
r 0.384683647 _25_ RTR  --- 12 message 32 [0 ffffffff 24 800] ------- [36:255 -1:255 32 0] 
r 0.384683681 _15_ RTR  --- 12 message 32 [0 ffffffff 24 800] ------- [36:255 -1:255 32 0] 
r 0.384683712 _27_ RTR  --- 12 message 32 [0 ffffffff 24 800] ------- [36:255 -1:255 32 0] 
r 0.384683746 _35_ RTR  --- 12 message 32 [0 ffffffff 24 800] ------- [36:255 -1:255 32 0] 
r 0.384683760 _4_ RTR  --- 12 message 32 [0 ffffffff 24 800] ------- [36:255 -1:255 32 0] 
r 0.384683805 _3_ RTR  --- 12 message 32 [0 ffffffff 24 800] ------- [36:255 -1:255 32 0] 
r 0.384683849 _33_ RTR  --- 12 message 32 [0 ffffffff 24 800] ------- [36:255 -1:255 32 0] 
r 0.384683890 _43_ RTR  --- 12 message 32 [0 ffffffff 24 800] ------- [36:255 -1:255 32 0] 
s 0.434638333 _27_ RTR  --- 13 message 32 [0 0 0 0] ------- [27:255 -1:255 32 0] 
r 0.435618533 _43_ RTR  --- 13 message 32 [0 ffffffff 1b 800] ------- [27:255 -1:255 32 0] 
r 0.435618564 _35_ RTR  --- 13 message 32 [0 ffffffff 1b 800] ------- [27:255 -1:255 32 0] 
r 0.435618630 _16_ RTR  --- 13 message 32 [0 ffffffff 1b 800] ------- [27:255 -1:255 32 0] 
r 0.435618634 _5_ RTR  --- 13 message 32 [0 ffffffff 1b 800] ------- [27:255 -1:255 32 0] 
r 0.435618716 _31_ RTR  --- 13 message 32 [0 ffffffff 1b 800] ------- [27:255 -1:255 32 0] 
r 0.435618717 _18_ RTR  --- 13 message 32 [0 ffffffff 1b 800] ------- [27:255 -1:255 32 0] 
r 0.435618725 _44_ RTR  --- 13 message 32 [0 ffffffff 1b 800] ------- [27:255 -1:255 32 0] 
r 0.435618758 _30_ RTR  --- 13 message 32 [0 ffffffff 1b 800] ------- [27:255 -1:255 32 0] 
r 0.435618788 _29_ RTR  --- 13 message 32 [0 ffffffff 1b 800] ------- [27:255 -1:255 32 0] 
r 0.435618851 _6_ RTR  --- 13 message 32 [0 ffffffff 1b 800] ------- [27:255 -1:255 32 0] 
r 0.435618898 _21_ RTR  --- 13 message 32 [0 ffffffff 1b 800] ------- [27:255 -1:255 32 0] 
r 0.435618913 _38_ RTR  --- 13 message 32 [0 ffffffff 1b 800] ------- [27:255 -1:255 32 0] 
r 0.435618962 _42_ RTR  --- 13 message 32 [0 ffffffff 1b 800] ------- [27:255 -1:255 32 0] 
r 0.435618985 _7_ RTR  --- 13 message 32 [0 ffffffff 1b 800] ------- [27:255 -1:255 32 0] 
r 0.435618987 _36_ RTR  --- 13 message 32 [0 ffffffff 1b 800] ------- [27:255 -1:255 32 0] 
r 0.435619001 _2_ RTR  --- 13 message 32 [0 ffffffff 1b 800] ------- [27:255 -1:255 32 0] 
r 0.435619016 _20_ RTR  --- 13 message 32 [0 ffffffff 1b 800] ------- [27:255 -1:255 32 0] 
r 0.435619027 _22_ RTR  --- 13 message 32 [0 ffffffff 1b 800] ------- [27:255 -1:255 32 0] 
r 0.435619058 _0_ RTR  --- 13 message 32 [0 ffffffff 1b 800] ------- [27:255 -1:255 32 0] 
r 0.435619065 _26_ RTR  --- 13 message 32 [0 ffffffff 1b 800] ------- [27:255 -1:255 32 0] 
r 0.435619080 _32_ RTR  --- 13 message 32 [0 ffffffff 1b 800] ------- [27:255 -1:255 32 0] 
r 0.435619089 _13_ RTR  --- 13 message 32 [0 ffffffff 1b 800] ------- [27:255 -1:255 32 0] 
r 0.435619141 _9_ RTR  --- 13 message 32 [0 ffffffff 1b 800] ------- [27:255 -1:255 32 0] 
r 0.435619153 _45_ RTR  --- 13 message 32 [0 ffffffff 1b 800] ------- [27:255 -1:255 32 0] 
r 0.435619163 _14_ RTR  --- 13 message 32 [0 ffffffff 1b 800] ------- [27:255 -1:255 32 0] 
r 0.435619164 _4_ RTR  --- 13 message 32 [0 ffffffff 1b 800] ------- [27:255 -1:255 32 0] 
s 0.474410973 _6_ RTR  --- 14 message 32 [0 0 0 0] ------- [6:255 -1:255 32 0] 
r 0.475231160 _44_ RTR  --- 14 message 32 [0 ffffffff 6 800] ------- [6:255 -1:255 32 0] 
r 0.475231199 _0_ RTR  --- 14 message 32 [0 ffffffff 6 800] ------- [6:255 -1:255 32 0] 
r 0.475231263 _9_ RTR  --- 14 message 32 [0 ffffffff 6 800] ------- [6:255 -1:255 32 0] 
r 0.475231292 _43_ RTR  --- 14 message 32 [0 ffffffff 6 800] ------- [6:255 -1:255 32 0] 
r 0.475231316 _48_ RTR  --- 14 message 32 [0 ffffffff 6 800] ------- [6:255 -1:255 32 0] 
r 0.475231402 _35_ RTR  --- 14 message 32 [0 ffffffff 6 800] ------- [6:255 -1:255 32 0] 
r 0.475231407 _20_ RTR  --- 14 message 32 [0 ffffffff 6 800] ------- [6:255 -1:255 32 0] 
r 0.475231407 _47_ RTR  --- 14 message 32 [0 ffffffff 6 800] ------- [6:255 -1:255 32 0] 
r 0.475231462 _49_ RTR  --- 14 message 32 [0 ffffffff 6 800] ------- [6:255 -1:255 32 0] 
r 0.475231491 _27_ RTR  --- 14 message 32 [0 ffffffff 6 800] ------- [6:255 -1:255 32 0] 
r 0.475231520 _38_ RTR  --- 14 message 32 [0 ffffffff 6 800] ------- [6:255 -1:255 32 0] 
r 0.475231610 _31_ RTR  --- 14 message 32 [0 ffffffff 6 800] ------- [6:255 -1:255 32 0] 
r 0.475231617 _30_ RTR  --- 14 message 32 [0 ffffffff 6 800] ------- [6:255 -1:255 32 0] 
r 0.475231634 _10_ RTR  --- 14 message 32 [0 ffffffff 6 800] ------- [6:255 -1:255 32 0] 
r 0.475231639 _13_ RTR  --- 14 message 32 [0 ffffffff 6 800] ------- [6:255 -1:255 32 0] 
r 0.475231640 _2_ RTR  --- 14 message 32 [0 ffffffff 6 800] ------- [6:255 -1:255 32 0] 
r 0.475231669 _29_ RTR  --- 14 message 32 [0 ffffffff 6 800] ------- [6:255 -1:255 32 0] 
r 0.475231691 _16_ RTR  --- 14 message 32 [0 ffffffff 6 800] ------- [6:255 -1:255 32 0] 
r 0.475231743 _41_ RTR  --- 14 message 32 [0 ffffffff 6 800] ------- [6:255 -1:255 32 0] 
r 0.475231757 _28_ RTR  --- 14 message 32 [0 ffffffff 6 800] ------- [6:255 -1:255 32 0] 
r 0.475231780 _7_ RTR  --- 14 message 32 [0 ffffffff 6 800] ------- [6:255 -1:255 32 0] 
r 0.475231783 _5_ RTR  --- 14 message 32 [0 ffffffff 6 800] ------- [6:255 -1:255 32 0] 
s 0.486850400 _28_ RTR  --- 15 message 32 [0 0 0 0] ------- [28:255 -1:255 32 0] 
r 0.488090530 _10_ RTR  --- 15 message 32 [0 ffffffff 1c 800] ------- [28:255 -1:255 32 0] 
r 0.488090582 _37_ RTR  --- 15 message 32 [0 ffffffff 1c 800] ------- [28:255 -1:255 32 0] 
r 0.488090717 _8_ RTR  --- 15 message 32 [0 ffffffff 1c 800] ------- [28:255 -1:255 32 0] 
r 0.488090726 _41_ RTR  --- 15 message 32 [0 ffffffff 1c 800] ------- [28:255 -1:255 32 0] 
r 0.488090888 _49_ RTR  --- 15 message 32 [0 ffffffff 1c 800] ------- [28:255 -1:255 32 0] 
r 0.488090958 _30_ RTR  --- 15 message 32 [0 ffffffff 1c 800] ------- [28:255 -1:255 32 0] 
r 0.488091041 _21_ RTR  --- 15 message 32 [0 ffffffff 1c 800] ------- [28:255 -1:255 32 0] 
r 0.488091077 _35_ RTR  --- 15 message 32 [0 ffffffff 1c 800] ------- [28:255 -1:255 32 0] 
r 0.488091119 _0_ RTR  --- 15 message 32 [0 ffffffff 1c 800] ------- [28:255 -1:255 32 0] 
r 0.488091184 _6_ RTR  --- 15 message 32 [0 ffffffff 1c 800] ------- [28:255 -1:255 32 0] 
r 0.488091210 _16_ RTR  --- 15 message 32 [0 ffffffff 1c 800] ------- [28:255 -1:255 32 0] 
r 0.488091220 _32_ RTR  --- 15 message 32 [0 ffffffff 1c 800] ------- [28:255 -1:255 32 0] 
r 0.488091233 _9_ RTR  --- 15 message 32 [0 ffffffff 1c 800] ------- [28:255 -1:255 32 0] 
s 0.520479946 _20_ RTR  --- 17 message 32 [0 0 0 0] ------- [20:255 -1:255 32 0] 
r 0.521320188 _38_ RTR  --- 17 message 32 [0 ffffffff 14 800] ------- [20:255 -1:255 32 0] 
r 0.521320209 _13_ RTR  --- 17 message 32 [0 ffffffff 14 800] ------- [20:255 -1:255 32 0] 
r 0.521320271 _2_ RTR  --- 17 message 32 [0 ffffffff 14 800] ------- [20:255 -1:255 32 0] 
r 0.521320297 _44_ RTR  --- 17 message 32 [0 ffffffff 14 800] ------- [20:255 -1:255 32 0] 
r 0.521320380 _6_ RTR  --- 17 message 32 [0 ffffffff 14 800] ------- [20:255 -1:255 32 0] 
r 0.521320403 _48_ RTR  --- 17 message 32 [0 ffffffff 14 800] ------- [20:255 -1:255 32 0] 
r 0.521320454 _47_ RTR  --- 17 message 32 [0 ffffffff 14 800] ------- [20:255 -1:255 32 0] 
r 0.521320467 _31_ RTR  --- 17 message 32 [0 ffffffff 14 800] ------- [20:255 -1:255 32 0] 
r 0.521320475 _43_ RTR  --- 17 message 32 [0 ffffffff 14 800] ------- [20:255 -1:255 32 0] 
r 0.521320479 _7_ RTR  --- 17 message 32 [0 ffffffff 14 800] ------- [20:255 -1:255 32 0] 
r 0.521320483 _29_ RTR  --- 17 message 32 [0 ffffffff 14 800] ------- [20:255 -1:255 32 0] 
r 0.521320483 _9_ RTR  --- 17 message 32 [0 ffffffff 14 800] ------- [20:255 -1:255 32 0] 
r 0.521320522 _0_ RTR  --- 17 message 32 [0 ffffffff 14 800] ------- [20:255 -1:255 32 0] 
r 0.521320550 _45_ RTR  --- 17 message 32 [0 ffffffff 14 800] ------- [20:255 -1:255 32 0] 
r 0.521320629 _27_ RTR  --- 17 message 32 [0 ffffffff 14 800] ------- [20:255 -1:255 32 0] 
r 0.521320684 _35_ RTR  --- 17 message 32 [0 ffffffff 14 800] ------- [20:255 -1:255 32 0] 
r 0.521320717 _26_ RTR  --- 17 message 32 [0 ffffffff 14 800] ------- [20:255 -1:255 32 0] 
s 0.522981625 _47_ RTR  --- 16 message 32 [0 0 0 0] ------- [47:255 -1:255 32 0] 
r 0.524241716 _48_ RTR  --- 16 message 32 [0 ffffffff 2f 800] ------- [47:255 -1:255 32 0] 
r 0.524241824 _9_ RTR  --- 16 message 32 [0 ffffffff 2f 800] ------- [47:255 -1:255 32 0] 
r 0.524241948 _0_ RTR  --- 16 message 32 [0 ffffffff 2f 800] ------- [47:255 -1:255 32 0] 
r 0.524242060 _6_ RTR  --- 16 message 32 [0 ffffffff 2f 800] ------- [47:255 -1:255 32 0] 
r 0.524242132 _20_ RTR  --- 16 message 32 [0 ffffffff 2f 800] ------- [47:255 -1:255 32 0] 
r 0.524242185 _44_ RTR  --- 16 message 32 [0 ffffffff 2f 800] ------- [47:255 -1:255 32 0] 
r 0.524242189 _49_ RTR  --- 16 message 32 [0 ffffffff 2f 800] ------- [47:255 -1:255 32 0] 
r 0.524242364 _38_ RTR  --- 16 message 32 [0 ffffffff 2f 800] ------- [47:255 -1:255 32 0] 
r 0.524242367 _43_ RTR  --- 16 message 32 [0 ffffffff 2f 800] ------- [47:255 -1:255 32 0] 
r 0.524242385 _13_ RTR  --- 16 message 32 [0 ffffffff 2f 800] ------- [47:255 -1:255 32 0] 
r 0.524242457 _2_ RTR  --- 16 message 32 [0 ffffffff 2f 800] ------- [47:255 -1:255 32 0] 
s 0.624387015 _8_ RTR  --- 18 message 32 [0 0 0 0] ------- [8:255 -1:255 32 0] 
r 0.625387170 _37_ RTR  --- 18 message 32 [0 ffffffff 8 800] ------- [8:255 -1:255 32 0] 