s 0.027064896 _43_ RTR  --- 0 message 32 [0 0 0 0] ------- [43:255 -1:255 32 0] 
r 0.028205096 _27_ RTR  --- 0 message 32 [0 ffffffff 2b 800] ------- [43:255 -1:255 32 0] 
r 0.028205097 _44_ RTR  --- 0 message 32 [0 ffffffff 2b 800] ------- [43:255 -1:255 32 0] 
r 0.028205116 _35_ RTR  --- 0 message 32 [0 ffffffff 2b 800] ------- [43:255 -1:255 32 0] 
r 0.028205216 _6_ RTR  --- 0 message 32 [0 ffffffff 2b 800] ------- [43:255 -1:255 32 0] 
r 0.028205306 _31_ RTR  --- 0 message 32 [0 ffffffff 2b 800] ------- [43:255 -1:255 32 0] 
r 0.028205343 _16_ RTR  --- 0 message 32 [0 ffffffff 2b 800] ------- [43:255 -1:255 32 0] 
r 0.028205370 _30_ RTR  --- 0 message 32 [0 ffffffff 2b 800] ------- [43:255 -1:255 32 0] 
r 0.028205378 _29_ RTR  --- 0 message 32 [0 ffffffff 2b 800] ------- [43:255 -1:255 32 0] 
r 0.028205385 _38_ RTR  --- 0 message 32 [0 ffffffff 2b 800] ------- [43:255 -1:255 32 0] 
r 0.028205388 _5_ RTR  --- 0 message 32 [0 ffffffff 2b 800] ------- [43:255 -1:255 32 0] 
r 0.028205425 _20_ RTR  --- 0 message 32 [0 ffffffff 2b 800] ------- [43:255 -1:255 32 0] 
r 0.028205430 _0_ RTR  --- 0 message 32 [0 ffffffff 2b 800] ------- [43:255 -1:255 32 0] 
r 0.028205468 _18_ RTR  --- 0 message 32 [0 ffffffff 2b 800] ------- [43:255 -1:255 32 0] 
r 0.028205495 _2_ RTR  --- 0 message 32 [0 ffffffff 2b 800] ------- [43:255 -1:255 32 0] 
r 0.028205506 _9_ RTR  --- 0 message 32 [0 ffffffff 2b 800] ------- [43:255 -1:255 32 0] 
r 0.028205546 _7_ RTR  --- 0 message 32 [0 ffffffff 2b 800] ------- [43:255 -1:255 32 0] 
r 0.028205548 _48_ RTR  --- 0 message 32 [0 ffffffff 2b 800] ------- [43:255 -1:255 32 0] 
r 0.028205555 _13_ RTR  --- 0 message 32 [0 ffffffff 2b 800] ------- [43:255 -1:255 32 0] 
r 0.028205556 _21_ RTR  --- 0 message 32 [0 ffffffff 2b 800] ------- [43:255 -1:255 32 0] 
r 0.028205621 _49_ RTR  --- 0 message 32 [0 ffffffff 2b 800] ------- [43:255 -1:255 32 0] 
r 0.028205638 _47_ RTR  --- 0 message 32 [0 ffffffff 2b 800] ------- [43:255 -1:255 32 0] 
r 0.028205645 _10_ RTR  --- 0 message 32 [0 ffffffff 2b 800] ------- [43:255 -1:255 32 0] 
r 0.028205687 _26_ RTR  --- 0 message 32 [0 ffffffff 2b 800] ------- [43:255 -1:255 32 0] 
r 0.028205706 _45_ RTR  --- 0 message 32 [0 ffffffff 2b 800] ------- [43:255 -1:255 32 0] 
r 0.028205720 _42_ RTR  --- 0 message 32 [0 ffffffff 2b 800] ------- [43:255 -1:255 32 0] 
r 0.028205728 _36_ RTR  --- 0 message 32 [0 ffffffff 2b 800] ------- [43:255 -1:255 32 0] 
s 0.032666194 _1_ RTR  --- 1 message 32 [0 0 0 0] ------- [1:255 -1:255 32 0] 
r 0.033786260 _17_ RTR  --- 1 message 32 [0 ffffffff 1 800] ------- [1:255 -1:255 32 0] 
r 0.033786562 _34_ RTR  --- 1 message 32 [0 ffffffff 1 800] ------- [1:255 -1:255 32 0] 
r 0.033786613 _39_ RTR  --- 1 message 32 [0 ffffffff 1 800] ------- [1:255 -1:255 32 0] 
r 0.033786614 _40_ RTR  --- 1 message 32 [0 ffffffff 1 800] ------- [1:255 -1:255 32 0] 
r 0.033786616 _14_ RTR  --- 1 message 32 [0 ffffffff 1 800] ------- [1:255 -1:255 32 0] 
r 0.033786663 _11_ RTR  --- 1 message 32 [0 ffffffff 1 800] ------- [1:255 -1:255 32 0] 
r 0.033786663 _25_ RTR  --- 1 message 32 [0 ffffffff 1 800] ------- [1:255 -1:255 32 0] 
r 0.033786747 _36_ RTR  --- 1 message 32 [0 ffffffff 1 800] ------- [1:255 -1:255 32 0] 
r 0.033786770 _22_ RTR  --- 1 message 32 [0 ffffffff 1 800] ------- [1:255 -1:255 32 0] 
r 0.033786812 _42_ RTR  --- 1 message 32 [0 ffffffff 1 800] ------- [1:255 -1:255 32 0] 
r 0.033786823 _32_ RTR  --- 1 message 32 [0 ffffffff 1 800] ------- [1:255 -1:255 32 0] 
r 0.033786836 _15_ RTR  --- 1 message 32 [0 ffffffff 1 800] ------- [1:255 -1:255 32 0] 
s 0.093438986 _12_ RTR  --- 2 message 32 [0 0 0 0] ------- [12:255 -1:255 32 0] 
r 0.094539122 _19_ RTR  --- 2 message 32 [0 ffffffff c 800] ------- [12:255 -1:255 32 0] 
r 0.094539227 _23_ RTR  --- 2 message 32 [0 ffffffff c 800] ------- [12:255 -1:255 32 0] 
r 0.094539298 _24_ RTR  --- 2 message 32 [0 ffffffff c 800] ------- [12:255 -1:255 32 0] 
r 0.094539365 _46_ RTR  --- 2 message 32 [0 ffffffff c 800] ------- [12:255 -1:255 32 0] 
r 0.094539445 _33_ RTR  --- 2 message 32 [0 ffffffff c 800] ------- [12:255 -1:255 32 0] 
r 0.094539533 _26_ RTR  --- 2 message 32 [0 ffffffff c 800] ------- [12:255 -1:255 32 0] 
r 0.094539537 _4_ RTR  --- 2 message 32 [0 ffffffff c 800] ------- [12:255 -1:255 32 0] 
r 0.094539741 _3_ RTR  --- 2 message 32 [0 ffffffff c 800] ------- [12:255 -1:255 32 0] 
r 0.094539767 _18_ RTR  --- 2 message 32 [0 ffffffff c 800] ------- [12:255 -1:255 32 0] 
r 0.094539773 _7_ RTR  --- 2 message 32 [0 ffffffff c 800] ------- [12:255 -1:255 32 0] 
r 0.094539778 _45_ RTR  --- 2 message 32 [0 ffffffff c 800] ------- [12:255 -1:255 32 0] 
r 0.094539790 _29_ RTR  --- 2 message 32 [0 ffffffff c 800] ------- [12:255 -1:255 32 0] 
s 0.123754628 _42_ RTR  --- 3 message 32 [0 0 0 0] ------- [42:255 -1:255 32 0] 
r 0.124694800 _36_ RTR  --- 3 message 32 [0 ffffffff 2a 800] ------- [42:255 -1:255 32 0] 
r 0.124694844 _39_ RTR  --- 3 message 32 [0 ffffffff 2a 800] ------- [42:255 -1:255 32 0] 
r 0.124694882 _11_ RTR  --- 3 message 32 [0 ffffffff 2a 800] ------- [42:255 -1:255 32 0] 
r 0.124694968 _34_ RTR  --- 3 message 32 [0 ffffffff 2a 800] ------- [42:255 -1:255 32 0] 
r 0.124694985 _22_ RTR  --- 3 message 32 [0 ffffffff 2a 800] ------- [42:255 -1:255 32 0] 
r 0.124695004 _14_ RTR  --- 3 message 32 [0 ffffffff 2a 800] ------- [42:255 -1:255 32 0] 
r 0.124695041 _18_ RTR  --- 3 message 32 [0 ffffffff 2a 800] ------- [42:255 -1:255 32 0] 
r 0.124695060 _16_ RTR  --- 3 message 32 [0 ffffffff 2a 800] ------- [42:255 -1:255 32 0] 
r 0.124695064 _5_ RTR  --- 3 message 32 [0 ffffffff 2a 800] ------- [42:255 -1:255 32 0] 
r 0.124695118 _32_ RTR  --- 3 message 32 [0 ffffffff 2a 800] ------- [42:255 -1:255 32 0] 
r 0.124695126 _15_ RTR  --- 3 message 32 [0 ffffffff 2a 800] ------- [42:255 -1:255 32 0] 
r 0.124695140 _25_ RTR  --- 3 message 32 [0 ffffffff 2a 800] ------- [42:255 -1:255 32 0] 
r 0.124695151 _40_ RTR  --- 3 message 32 [0 ffffffff 2a 800] ------- [42:255 -1:255 32 0] 
r 0.124695158 _4_ RTR  --- 3 message 32 [0 ffffffff 2a 800] ------- [42:255 -1:255 32 0] 
r 0.124695179 _21_ RTR  --- 3 message 32 [0 ffffffff 2a 800] ------- [42:255 -1:255 32 0] 
r 0.124695217 _17_ RTR  --- 3 message 32 [0 ffffffff 2a 800] ------- [42:255 -1:255 32 0] 
r 0.124695223 _3_ RTR  --- 3 message 32 [0 ffffffff 2a 800] ------- [42:255 -1:255 32 0] 
r 0.124695246 _1_ RTR  --- 3 message 32 [0 ffffffff 2a 800] ------- [42:255 -1:255 32 0] 
r 0.124695246 _33_ RTR  --- 3 message 32 [0 ffffffff 2a 800] ------- [42:255 -1:255 32 0] 
r 0.124695257 _27_ RTR  --- 3 message 32 [0 ffffffff 2a 800] ------- [42:255 -1:255 32 0] 
r 0.124695276 _30_ RTR  --- 3 message 32 [0 ffffffff 2a 800] ------- [42:255 -1:255 32 0] 
r 0.124695308 _46_ RTR  --- 3 message 32 [0 ffffffff 2a 800] ------- [42:255 -1:255 32 0] 
r 0.124695347 _35_ RTR  --- 3 message 32 [0 ffffffff 2a 800] ------- [42:255 -1:255 32 0] 
r 0.124695451 _43_ RTR  --- 3 message 32 [0 ffffffff 2a 800] ------- [42:255 -1:255 32 0] 
s 0.181162560 _2_ RTR  --- 4 message 32 [0 0 0 0] ------- [2:255 -1:255 32 0] 
r 0.182102681 _38_ RTR  --- 4 message 32 [0 ffffffff 2 800] ------- [2:255 -1:255 32 0] 
r 0.182102688 _13_ RTR  --- 4 message 32 [0 ffffffff 2 800] ------- [2:255 -1:255 32 0] 
r 0.182102781 _7_ RTR  --- 4 message 32 [0 ffffffff 2 800] ------- [2:255 -1:255 32 0] 
r 0.182102842 _45_ RTR  --- 4 message 32 [0 ffffffff 2 800] ------- [2:255 -1:255 32 0] 
r 0.182102872 _29_ RTR  --- 4 message 32 [0 ffffffff 2 800] ------- [2:255 -1:255 32 0] 
r 0.182102884 _20_ RTR  --- 4 message 32 [0 ffffffff 2 800] ------- [2:255 -1:255 32 0] 
r 0.182102901 _31_ RTR  --- 4 message 32 [0 ffffffff 2 800] ------- [2:255 -1:255 32 0] 
r 0.182103021 _26_ RTR  --- 4 message 32 [0 ffffffff 2 800] ------- [2:255 -1:255 32 0] 
r 0.182103070 _44_ RTR  --- 4 message 32 [0 ffffffff 2 800] ------- [2:255 -1:255 32 0] 
r 0.182103158 _43_ RTR  --- 4 message 32 [0 ffffffff 2 800] ------- [2:255 -1:255 32 0] 
r 0.182103227 _27_ RTR  --- 4 message 32 [0 ffffffff 2 800] ------- [2:255 -1:255 32 0] 
r 0.182103228 _6_ RTR  --- 4 message 32 [0 ffffffff 2 800] ------- [2:255 -1:255 32 0] 
r 0.182103318 _5_ RTR  --- 4 message 32 [0 ffffffff 2 800] ------- [2:255 -1:255 32 0] 
r 0.182103337 _48_ RTR  --- 4 message 32 [0 ffffffff 2 800] ------- [2:255 -1:255 32 0] 
r 0.182103355 _18_ RTR  --- 4 message 32 [0 ffffffff 2 800] ------- [2:255 -1:255 32 0] 
r 0.182103374 _35_ RTR  --- 4 message 32 [0 ffffffff 2 800] ------- [2:255 -1:255 32 0] 
r 0.182103391 _47_ RTR  --- 4 message 32 [0 ffffffff 2 800] ------- [2:255 -1:255 32 0] 
s 0.195628620 _18_ RTR  --- 5 message 32 [0 0 0 0] ------- [18:255 -1:255 32 0] 
r 0.196708703 _5_ RTR  --- 5 message 32 [0 ffffffff 12 800] ------- [18:255 -1:255 32 0] 
r 0.196709004 _27_ RTR  --- 5 message 32 [0 ffffffff 12 800] ------- [18:255 -1:255 32 0] 
r 0.196709034 _42_ RTR  --- 5 message 32 [0 ffffffff 12 800] ------- [18:255 -1:255 32 0] 
r 0.196709050 _16_ RTR  --- 5 message 32 [0 ffffffff 12 800] ------- [18:255 -1:255 32 0] 
r 0.196709067 _4_ RTR  --- 5 message 32 [0 ffffffff 12 800] ------- [18:255 -1:255 32 0] 
r 0.196709077 _31_ RTR  --- 5 message 32 [0 ffffffff 12 800] ------- [18:255 -1:255 32 0] 
r 0.196709108 _29_ RTR  --- 5 message 32 [0 ffffffff 12 800] ------- [18:255 -1:255 32 0] 
r 0.196709108 _33_ RTR  --- 5 message 32 [0 ffffffff 12 800] ------- [18:255 -1:255 32 0] 
r 0.196709118 _46_ RTR  --- 5 message 32 [0 ffffffff 12 800] ------- [18:255 -1:255 32 0] 
r 0.196709155 _36_ RTR  --- 5 message 32 [0 ffffffff 12 800] ------- [18:255 -1:255 32 0] 
r 0.196709193 _43_ RTR  --- 5 message 32 [0 ffffffff 12 800] ------- [18:255 -1:255 32 0] 
r 0.196709206 _35_ RTR  --- 5 message 32 [0 ffffffff 12 800] ------- [18:255 -1:255 32 0] 
r 0.196709227 _11_ RTR  --- 5 message 32 [0 ffffffff 12 800] ------- [18:255 -1:255 32 0] 
r 0.196709230 _26_ RTR  --- 5 message 32 [0 ffffffff 12 800] ------- [18:255 -1:255 32 0] 
r 0.196709236 _39_ RTR  --- 5 message 32 [0 ffffffff 12 800] ------- [18:255 -1:255 32 0] 
r 0.196709287 _7_ RTR  --- 5 message 32 [0 ffffffff 12 800] ------- [18:255 -1:255 32 0] 
r 0.196709288 _19_ RTR  --- 5 message 32 [0 ffffffff 12 800] ------- [18:255 -1:255 32 0] 
r 0.196709292 _22_ RTR  --- 5 message 32 [0 ffffffff 12 800] ------- [18:255 -1:255 32 0] 
r 0.196709293 _30_ RTR  --- 5 message 32 [0 ffffffff 12 800] ------- [18:255 -1:255 32 0] 
r 0.196709316 _3_ RTR  --- 5 message 32 [0 ffffffff 12 800] ------- [18:255 -1:255 32 0] 
r 0.196709326 _21_ RTR  --- 5 message 32 [0 ffffffff 12 800] ------- [18:255 -1:255 32 0] 
r 0.196709335 _34_ RTR  --- 5 message 32 [0 ffffffff 12 800] ------- [18:255 -1:255 32 0] 
r 0.196709340 _15_ RTR  --- 5 message 32 [0 ffffffff 12 800] ------- [18:255 -1:255 32 0] 
r 0.196709358 _44_ RTR  --- 5 message 32 [0 ffffffff 12 800] ------- [18:255 -1:255 32 0] 
r 0.196709373 _14_ RTR  --- 5 message 32 [0 ffffffff 12 800] ------- [18:255 -1:255 32 0] 
r 0.196709380 _38_ RTR  --- 5 message 32 [0 ffffffff 12 800] ------- [18:255 -1:255 32 0] 
r 0.196709400 _32_ RTR  --- 5 message 32 [0 ffffffff 12 800] ------- [18:255 -1:255 32 0] 
r 0.196709400 _12_ RTR  --- 5 message 32 [0 ffffffff 12 800] ------- [18:255 -1:255 32 0] 
r 0.196709416 _2_ RTR  --- 5 message 32 [0 ffffffff 12 800] ------- [18:255 -1:255 32 0] 
r 0.196709437 _45_ RTR  --- 5 message 32 [0 ffffffff 12 800] ------- [18:255 -1:255 32 0] 
r 0.196709439 _23_ RTR  --- 5 message 32 [0 ffffffff 12 800] ------- [18:255 -1:255 32 0] 
r 0.196709443 _25_ RTR  --- 5 message 32 [0 ffffffff 12 800] ------- [18:255 -1:255 32 0] 
s 0.227425420 _35_ RTR  --- 6 message 32 [0 0 0 0] ------- [35:255 -1:255 32 0] 
r 0.228305640 _43_ RTR  --- 6 message 32 [0 ffffffff 23 800] ------- [35:255 -1:255 32 0] 
r 0.228305652 _27_ RTR  --- 6 message 32 [0 ffffffff 23 800] ------- [35:255 -1:255 32 0] 
r 0.228305675 _30_ RTR  --- 6 message 32 [0 ffffffff 23 800] ------- [35:255 -1:255 32 0] 
r 0.228305714 _16_ RTR  --- 6 message 32 [0 ffffffff 23 800] ------- [35:255 -1:255 32 0] 
r 0.228305811 _44_ RTR  --- 6 message 32 [0 ffffffff 23 800] ------- [35:255 -1:255 32 0] 
r 0.228305850 _6_ RTR  --- 6 message 32 [0 ffffffff 23 800] ------- [35:255 -1:255 32 0] 
r 0.228305869 _21_ RTR  --- 6 message 32 [0 ffffffff 23 800] ------- [35:255 -1:255 32 0] 
r 0.228305925 _5_ RTR  --- 6 message 32 [0 ffffffff 23 800] ------- [35:255 -1:255 32 0] 
r 0.228306006 _18_ RTR  --- 6 message 32 [0 ffffffff 23 800] ------- [35:255 -1:255 32 0] 
r 0.228306006 _31_ RTR  --- 6 message 32 [0 ffffffff 23 800] ------- [35:255 -1:255 32 0] 
r 0.228306009 _0_ RTR  --- 6 message 32 [0 ffffffff 23 800] ------- [35:255 -1:255 32 0] 
r 0.228306024 _10_ RTR  --- 6 message 32 [0 ffffffff 23 800] ------- [35:255 -1:255 32 0] 
r 0.228306080 _29_ RTR  --- 6 message 32 [0 ffffffff 23 800] ------- [35:255 -1:255 32 0] 
r 0.228306083 _22_ RTR  --- 6 message 32 [0 ffffffff 23 800] ------- [35:255 -1:255 32 0] 
r 0.228306095 _32_ RTR  --- 6 message 32 [0 ffffffff 23 800] ------- [35:255 -1:255 32 0] 
r 0.228306097 _28_ RTR  --- 6 message 32 [0 ffffffff 23 800] ------- [35:255 -1:255 32 0] 
r 0.228306105 _49_ RTR  --- 6 message 32 [0 ffffffff 23 800] ------- [35:255 -1:255 32 0] 
r 0.228306108 _36_ RTR  --- 6 message 32 [0 ffffffff 23 800] ------- [35:255 -1:255 32 0] 
r 0.228306115 _9_ RTR  --- 6 message 32 [0 ffffffff 23 800] ------- [35:255 -1:255 32 0] 
r 0.228306128 _38_ RTR  --- 6 message 32 [0 ffffffff 23 800] ------- [35:255 -1:255 32 0] 
r 0.228306140 _42_ RTR  --- 6 message 32 [0 ffffffff 23 800] ------- [35:255 -1:255 32 0] 
r 0.228306158 _20_ RTR  --- 6 message 32 [0 ffffffff 23 800] ------- [35:255 -1:255 32 0] 
r 0.228306191 _48_ RTR  --- 6 message 32 [0 ffffffff 23 800] ------- [35:255 -1:255 32 0] 
r 0.228306235 _2_ RTR  --- 6 message 32 [0 ffffffff 23 800] ------- [35:255 -1:255 32 0] 
r 0.228306235 _14_ RTR  --- 6 message 32 [0 ffffffff 23 800] ------- [35:255 -1:255 32 0] 
r 0.228306237 _37_ RTR  --- 6 message 32 [0 ffffffff 23 800] ------- [35:255 -1:255 32 0] 
s 0.232809095 _41_ RTR  --- 7 message 32 [0 0 0 0] ------- [41:255 -1:255 32 0] 
r 0.234069374 _10_ RTR  --- 7 message 32 [0 ffffffff 29 800] ------- [41:255 -1:255 32 0] 
r 0.234069406 _49_ RTR  --- 7 message 32 [0 ffffffff 29 800] ------- [41:255 -1:255 32 0] 
r 0.234069420 _28_ RTR  --- 7 message 32 [0 ffffffff 29 800] ------- [41:255 -1:255 32 0] 
r 0.234069531 _37_ RTR  --- 7 message 32 [0 ffffffff 29 800] ------- [41:255 -1:255 32 0] 
r 0.234069687 _8_ RTR  --- 7 message 32 [0 ffffffff 29 800] ------- [41:255 -1:255 32 0] 
r 0.234069713 _0_ RTR  --- 7 message 32 [0 ffffffff 29 800] ------- [41:255 -1:255 32 0] 
r 0.234069795 _9_ RTR  --- 7 message 32 [0 ffffffff 29 800] ------- [41:255 -1:255 32 0] 
r 0.234069865 _6_ RTR  --- 7 message 32 [0 ffffffff 29 800] ------- [41:255 -1:255 32 0] 
r 0.234069901 _30_ RTR  --- 7 message 32 [0 ffffffff 29 800] ------- [41:255 -1:255 32 0] 
r 0.234069927 _48_ RTR  --- 7 message 32 [0 ffffffff 29 800] ------- [41:255 -1:255 32 0] 
s 0.235636616 _14_ RTR  --- 8 message 32 [0 0 0 0] ------- [14:255 -1:255 32 0] 
r 0.236756770 _22_ RTR  --- 8 message 32 [0 ffffffff e 800] ------- [14:255 -1:255 32 0] 
r 0.236756835 _36_ RTR  --- 8 message 32 [0 ffffffff e 800] ------- [14:255 -1:255 32 0] 
r 0.236756840 _32_ RTR  --- 8 message 32 [0 ffffffff e 800] ------- [14:255 -1:255 32 0] 
r 0.236756944 _39_ RTR  --- 8 message 32 [0 ffffffff e 800] ------- [14:255 -1:255 32 0] 
r 0.236756979 _17_ RTR  --- 8 message 32 [0 ffffffff e 800] ------- [14:255 -1:255 32 0] 
r 0.236756992 _42_ RTR  --- 8 message 32 [0 ffffffff e 800] ------- [14:255 -1:255 32 0] 
r 0.236757038 _1_ RTR  --- 8 message 32 [0 ffffffff e 800] ------- [14:255 -1:255 32 0] 
r 0.236757042 _34_ RTR  --- 8 message 32 [0 ffffffff e 800] ------- [14:255 -1:255 32 0] 
r 0.236757051 _21_ RTR  --- 8 message 32 [0 ffffffff e 800] ------- [14:255 -1:255 32 0] 
r 0.236757055 _11_ RTR  --- 8 message 32 [0 ffffffff e 800] ------- [14:255 -1:255 32 0] 
r 0.236757158 _16_ RTR  --- 8 message 32 [0 ffffffff e 800] ------- [14:255 -1:255 32 0] 
r 0.236757229 _40_ RTR  --- 8 message 32 [0 ffffffff e 800] ------- [14:255 -1:255 32 0] 
r 0.236757243 _30_ RTR  --- 8 message 32 [0 ffffffff e 800] ------- [14:255 -1:255 32 0] 
r 0.236757251 _25_ RTR  --- 8 message 32 [0 ffffffff e 800] ------- [14:255 -1:255 32 0] 
r 0.236757341 _15_ RTR  --- 8 message 32 [0 ffffffff e 800] ------- [14:255 -1:255 32 0] 
r 0.236757365 _5_ RTR  --- 8 message 32 [0 ffffffff e 800] ------- [14:255 -1:255 32 0] 
r 0.236757369 _18_ RTR  --- 8 message 32 [0 ffffffff e 800] ------- [14:255 -1:255 32 0] 
r 0.236757431 _35_ RTR  --- 8 message 32 [0 ffffffff e 800] ------- [14:255 -1:255 32 0] 
r 0.236757445 _27_ RTR  --- 8 message 32 [0 ffffffff e 800] ------- [14:255 -1:255 32 0] 
s 0.250270767 _46_ RTR  --- 9 message 32 [0 0 0 0] ------- [46:255 -1:255 32 0] 
r 0.251130852 _33_ RTR  --- 9 message 32 [0 ffffffff 2e 800] ------- [46:255 -1:255 32 0] 
r 0.251130940 _4_ RTR  --- 9 message 32 [0 ffffffff 2e 800] ------- [46:255 -1:255 32 0] 
r 0.251131105 _19_ RTR  --- 9 message 32 [0 ffffffff 2e 800] ------- [46:255 -1:255 32 0] 
r 0.251131146 _12_ RTR  --- 9 message 32 [0 ffffffff 2e 800] ------- [46:255 -1:255 32 0] 
r 0.251131196 _3_ RTR  --- 9 message 32 [0 ffffffff 2e 800] ------- [46:255 -1:255 32 0] 
r 0.251131265 _18_ RTR  --- 9 message 32 [0 ffffffff 2e 800] ------- [46:255 -1:255 32 0] 
r 0.251131313 _23_ RTR  --- 9 message 32 [0 ffffffff 2e 800] ------- [46:255 -1:255 32 0] 
r 0.251131344 _5_ RTR  --- 9 message 32 [0 ffffffff 2e 800] ------- [46:255 -1:255 32 0] 
r 0.251131353 _15_ RTR  --- 9 message 32 [0 ffffffff 2e 800] ------- [46:255 -1:255 32 0] 
r 0.251131390 _26_ RTR  --- 9 message 32 [0 ffffffff 2e 800] ------- [46:255 -1:255 32 0] 
r 0.251131416 _24_ RTR  --- 9 message 32 [0 ffffffff 2e 800] ------- [46:255 -1:255 32 0] 
r 0.251131447 _42_ RTR  --- 9 message 32 [0 ffffffff 2e 800] ------- [46:255 -1:255 32 0] 
r 0.251131461 _11_ RTR  --- 9 message 32 [0 ffffffff 2e 800] ------- [46:255 -1:255 32 0] 
r 0.251131511 _29_ RTR  --- 9 message 32 [0 ffffffff 2e 800] ------- [46:255 -1:255 32 0] 
r 0.251131531 _31_ RTR  --- 9 message 32 [0 ffffffff 2e 800] ------- [46:255 -1:255 32 0] 
r 0.251131532 _25_ RTR  --- 9 message 32 [0 ffffffff 2e 800] ------- [46:255 -1:255 32 0] 
r 0.251131542 _39_ RTR  --- 9 message 32 [0 ffffffff 2e 800] ------- [46:255 -1:255 32 0] 
r 0.251131558 _34_ RTR  --- 9 message 32 [0 ffffffff 2e 800] ------- [46:255 -1:255 32 0] 
r 0.251131583 _40_ RTR  --- 9 message 32 [0 ffffffff 2e 800] ------- [46:255 -1:255 32 0] 
r 0.251131590 _7_ RTR  --- 9 message 32 [0 ffffffff 2e 800] ------- [46:255 -1:255 32 0] 
s 0.329125112 _11_ RTR  --- 10 message 32 [0 0 0 0] ------- [11:255 -1:255 32 0] 
r 0.330105222 _34_ RTR  --- 10 message 32 [0 ffffffff b 800] ------- [11:255 -1:255 32 0] 
r 0.330105222 _39_ RTR  --- 10 message 32 [0 ffffffff b 800] ------- [11:255 -1:255 32 0] 
r 0.330105366 _42_ RTR  --- 10 message 32 [0 ffffffff b 800] ------- [11:255 -1:255 32 0] 
r 0.330105371 _25_ RTR  --- 10 message 32 [0 ffffffff b 800] ------- [11:255 -1:255 32 0] 
r 0.330105382 _40_ RTR  --- 10 message 32 [0 ffffffff b 800] ------- [11:255 -1:255 32 0] 
r 0.330105402 _15_ RTR  --- 10 message 32 [0 ffffffff b 800] ------- [11:255 -1:255 32 0] 
r 0.330105452 _36_ RTR  --- 10 message 32 [0 ffffffff b 800] ------- [11:255 -1:255 32 0] 
r 0.330105551 _14_ RTR  --- 10 message 32 [0 ffffffff b 800] ------- [11:255 -1:255 32 0] 
r 0.330105560 _3_ RTR  --- 10 message 32 [0 ffffffff b 800] ------- [11:255 -1:255 32 0] 
r 0.330105578 _17_ RTR  --- 10 message 32 [0 ffffffff b 800] ------- [11:255 -1:255 32 0] 
r 0.330105581 _1_ RTR  --- 10 message 32 [0 ffffffff b 800] ------- [11:255 -1:255 32 0] 
r 0.330105617 _22_ RTR  --- 10 message 32 [0 ffffffff b 800] ------- [11:255 -1:255 32 0] 
r 0.330105634 _4_ RTR  --- 10 message 32 [0 ffffffff b 800] ------- [11:255 -1:255 32 0] 
r 0.330105719 _18_ RTR  --- 10 message 32 [0 ffffffff b 800] ------- [11:255 -1:255 32 0] 
r 0.330105727 _33_ RTR  --- 10 message 32 [0 ffffffff b 800] ------- [11:255 -1:255 32 0] 
r 0.330105743 _32_ RTR  --- 10 message 32 [0 ffffffff b 800] ------- [11:255 -1:255 32 0] 
r 0.330105764 _5_ RTR  --- 10 message 32 [0 ffffffff b 800] ------- [11:255 -1:255 32 0] 
r 0.330105797 _16_ RTR  --- 10 message 32 [0 ffffffff b 800] ------- [11:255 -1:255 32 0] 
r 0.330105807 _46_ RTR  --- 10 message 32 [0 ffffffff b 800] ------- [11:255 -1:255 32 0] 
r 0.330105871 _21_ RTR  --- 10 message 32 [0 ffffffff b 800] ------- [11:255 -1:255 32 0] 
s 0.349938431 _17_ RTR  --- 11 message 32 [0 0 0 0] ------- [17:255 -1:255 32 0] 
r 0.350918497 _1_ RTR  --- 11 message 32 [0 ffffffff 11 800] ------- [17:255 -1:255 32 0] 
r 0.350918794 _14_ RTR  --- 11 message 32 [0 ffffffff 11 800] ------- [17:255 -1:255 32 0] 
r 0.350918805 _34_ RTR  --- 11 message 32 [0 ffffffff 11 800] ------- [17:255 -1:255 32 0] 
r 0.350918833 _39_ RTR  --- 11 message 32 [0 ffffffff 11 800] ------- [17:255 -1:255 32 0] 
r 0.350918886 _40_ RTR  --- 11 message 32 [0 ffffffff 11 800] ------- [17:255 -1:255 32 0] 
r 0.350918897 _11_ RTR  --- 11 message 32 [0 ffffffff 11 800] ------- [17:255 -1:255 32 0] 
r 0.350918933 _25_ RTR  --- 11 message 32 [0 ffffffff 11 800] ------- [17:255 -1:255 32 0] 
r 0.350918940 _36_ RTR  --- 11 message 32 [0 ffffffff 11 800] ------- [17:255 -1:255 32 0] 
r 0.350918948 _22_ RTR  --- 11 message 32 [0 ffffffff 11 800] ------- [17:255 -1:255 32 0] 
r 0.350918997 _32_ RTR  --- 11 message 32 [0 ffffffff 11 800] ------- [17:255 -1:255 32 0] 
r 0.350919020 _42_ RTR  --- 11 message 32 [0 ffffffff 11 800] ------- [17:255 -1:255 32 0] 
r 0.350919096 _15_ RTR  --- 11 message 32 [0 ffffffff 11 800] ------- [17:255 -1:255 32 0] 
r 0.350919226 _21_ RTR  --- 11 message 32 [0 ffffffff 11 800] ------- [17:255 -1:255 32 0] 
s 0.377947832 _37_ RTR  --- 12 message 32 [0 0 0 0] ------- [37:255 -1:255 32 0] 
r 0.379127988 _8_ RTR  --- 12 message 32 [0 ffffffff 25 800] ------- [37:255 -1:255 32 0] 
r 0.379128014 _28_ RTR  --- 12 message 32 [0 ffffffff 25 800] ------- [37:255 -1:255 32 0] 
r 0.379128143 _10_ RTR  --- 12 message 32 [0 ffffffff 25 800] ------- [37:255 -1:255 32 0] 
r 0.379128268 _41_ RTR  --- 12 message 32 [0 ffffffff 25 800] ------- [37:255 -1:255 32 0] 
r 0.379128487 _30_ RTR  --- 12 message 32 [0 ffffffff 25 800] ------- [37:255 -1:255 32 0] 
r 0.379128489 _49_ RTR  --- 12 message 32 [0 ffffffff 25 800] ------- [37:255 -1:255 32 0] 
r 0.379128516 _21_ RTR  --- 12 message 32 [0 ffffffff 25 800] ------- [37:255 -1:255 32 0] 
r 0.379128649 _35_ RTR  --- 12 message 32 [0 ffffffff 25 800] ------- [37:255 -1:255 32 0] 
r 0.379128650 _32_ RTR  --- 12 message 32 [0 ffffffff 25 800] ------- [37:255 -1:255 32 0] 
s 0.436031109 _28_ RTR  --- 13 message 32 [0 0 0 0] ------- [28:255 -1:255 32 0] 
r 0.437171239 _10_ RTR  --- 13 message 32 [0 ffffffff 1c 800] ------- [28:255 -1:255 32 0] 
r 0.437171291 _37_ RTR  --- 13 message 32 [0 ffffffff 1c 800] ------- [28:255 -1:255 32 0] 
r 0.437171426 _8_ RTR  --- 13 message 32 [0 ffffffff 1c 800] ------- [28:255 -1:255 32 0] 
r 0.437171435 _41_ RTR  --- 13 message 32 [0 ffffffff 1c 800] ------- [28:255 -1:255 32 0] 
r 0.437171597 _49_ RTR  --- 13 message 32 [0 ffffffff 1c 800] ------- [28:255 -1:255 32 0] 
r 0.437171667 _30_ RTR  --- 13 message 32 [0 ffffffff 1c 800] ------- [28:255 -1:255 32 0] 
r 0.437171750 _21_ RTR  --- 13 message 32 [0 ffffffff 1c 800] ------- [28:255 -1:255 32 0] 
r 0.437171786 _35_ RTR  --- 13 message 32 [0 ffffffff 1c 800] ------- [28:255 -1:255 32 0] 
r 0.437171828 _0_ RTR  --- 13 message 32 [0 ffffffff 1c 800] ------- [28:255 -1:255 32 0] 
r 0.437171893 _6_ RTR  --- 13 message 32 [0 ffffffff 1c 800] ------- [28:255 -1:255 32 0] 
r 0.437171919 _16_ RTR  --- 13 message 32 [0 ffffffff 1c 800] ------- [28:255 -1:255 32 0] 
r 0.437171929 _32_ RTR  --- 13 message 32 [0 ffffffff 1c 800] ------- [28:255 -1:255 32 0] 
r 0.437171942 _9_ RTR  --- 13 message 32 [0 ffffffff 1c 800] ------- [28:255 -1:255 32 0] 
s 0.477099787 _7_ RTR  --- 14 message 32 [0 0 0 0] ------- [7:255 -1:255 32 0] 
r 0.478019956 _45_ RTR  --- 14 message 32 [0 ffffffff 7 800] ------- [7:255 -1:255 32 0] 
r 0.478019989 _29_ RTR  --- 14 message 32 [0 ffffffff 7 800] ------- [7:255 -1:255 32 0] 
r 0.478020009 _2_ RTR  --- 14 message 32 [0 ffffffff 7 800] ------- [7:255 -1:255 32 0] 
r 0.478020028 _26_ RTR  --- 14 message 32 [0 ffffffff 7 800] ------- [7:255 -1:255 32 0] 
r 0.478020057 _31_ RTR  --- 14 message 32 [0 ffffffff 7 800] ------- [7:255 -1:255 32 0] 
r 0.478020083 _38_ RTR  --- 14 message 32 [0 ffffffff 7 800] ------- [7:255 -1:255 32 0] 
r 0.478020129 _13_ RTR  --- 14 message 32 [0 ffffffff 7 800] ------- [7:255 -1:255 32 0] 
r 0.478020321 _20_ RTR  --- 14 message 32 [0 ffffffff 7 800] ------- [7:255 -1:255 32 0] 
r 0.478020410 _23_ RTR  --- 14 message 32 [0 ffffffff 7 800] ------- [7:255 -1:255 32 0] 
r 0.478020415 _44_ RTR  --- 14 message 32 [0 ffffffff 7 800] ------- [7:255 -1:255 32 0] 
r 0.478020437 _5_ RTR  --- 14 message 32 [0 ffffffff 7 800] ------- [7:255 -1:255 32 0] 
r 0.478020438 _43_ RTR  --- 14 message 32 [0 ffffffff 7 800] ------- [7:255 -1:255 32 0] 
r 0.478020439 _27_ RTR  --- 14 message 32 [0 ffffffff 7 800] ------- [7:255 -1:255 32 0] 
r 0.478020448 _19_ RTR  --- 14 message 32 [0 ffffffff 7 800] ------- [7:255 -1:255 32 0] 
r 0.478020454 _18_ RTR  --- 14 message 32 [0 ffffffff 7 800] ------- [7:255 -1:255 32 0] 
r 0.478020466 _24_ RTR  --- 14 message 32 [0 ffffffff 7 800] ------- [7:255 -1:255 32 0] 
r 0.478020574 _12_ RTR  --- 14 message 32 [0 ffffffff 7 800] ------- [7:255 -1:255 32 0] 
r 0.478020595 _6_ RTR  --- 14 message 32 [0 ffffffff 7 800] ------- [7:255 -1:255 32 0] 
r 0.478020611 _46_ RTR  --- 14 message 32 [0 ffffffff 7 800] ------- [7:255 -1:255 32 0] 
s 0.482611228 _29_ RTR  --- 15 message 32 [0 0 0 0] ------- [29:255 -1:255 32 0] 
r 0.484031302 _31_ RTR  --- 15 message 32 [0 ffffffff 1d 800] ------- [29:255 -1:255 32 0] 
r 0.484031430 _7_ RTR  --- 15 message 32 [0 ffffffff 1d 800] ------- [29:255 -1:255 32 0] 
r 0.484031534 _38_ RTR  --- 15 message 32 [0 ffffffff 1d 800] ------- [29:255 -1:255 32 0] 
r 0.484031540 _26_ RTR  --- 15 message 32 [0 ffffffff 1d 800] ------- [29:255 -1:255 32 0] 
r 0.484031540 _2_ RTR  --- 15 message 32 [0 ffffffff 1d 800] ------- [29:255 -1:255 32 0] 
r 0.484031598 _45_ RTR  --- 15 message 32 [0 ffffffff 1d 800] ------- [29:255 -1:255 32 0] 
r 0.484031666 _13_ RTR  --- 15 message 32 [0 ffffffff 1d 800] ------- [29:255 -1:255 32 0] 
r 0.484031682 _27_ RTR  --- 15 message 32 [0 ffffffff 1d 800] ------- [29:255 -1:255 32 0] 
r 0.484031686 _5_ RTR  --- 15 message 32 [0 ffffffff 1d 800] ------- [29:255 -1:255 32 0] 
r 0.484031710 _43_ RTR  --- 15 message 32 [0 ffffffff 1d 800] ------- [29:255 -1:255 32 0] 
r 0.484031715 _18_ RTR  --- 15 message 32 [0 ffffffff 1d 800] ------- [29:255 -1:255 32 0] 
r 0.484031737 _44_ RTR  --- 15 message 32 [0 ffffffff 1d 800] ------- [29:255 -1:255 32 0] 
r 0.484031765 _20_ RTR  --- 15 message 32 [0 ffffffff 1d 800] ------- [29:255 -1:255 32 0] 
r 0.484031887 _35_ RTR  --- 15 message 32 [0 ffffffff 1d 800] ------- [29:255 -1:255 32 0] 
r 0.484031896 _19_ RTR  --- 15 message 32 [0 ffffffff 1d 800] ------- [29:255 -1:255 32 0] 
r 0.484031921 _23_ RTR  --- 15 message 32 [0 ffffffff 1d 800] ------- [29:255 -1:255 32 0] 
r 0.484031924 _6_ RTR  --- 15 message 32 [0 ffffffff 1d 800] ------- [29:255 -1:255 32 0] 
r 0.484031951 _16_ RTR  --- 15 message 32 [0 ffffffff 1d 800] ------- [29:255 -1:255 32 0] 
r 0.484031972 _46_ RTR  --- 15 message 32 [0 ffffffff 1d 800] ------- [29:255 -1:255 32 0] 
r 0.484032000 _24_ RTR  --- 15 message 32 [0 ffffffff 1d 800] ------- [29:255 -1:255 32 0] 
r 0.484032017 _33_ RTR  --- 15 message 32 [0 ffffffff 1d 800] ------- [29:255 -1:255 32 0] 
r 0.484032031 _4_ RTR  --- 15 message 32 [0 ffffffff 1d 800] ------- [29:255 -1:255 32 0] 
r 0.484032031 _12_ RTR  --- 15 message 32 [0 ffffffff 1d 800] ------- [29:255 -1:255 32 0] 
s 0.515179250 _48_ RTR  --- 16 message 32 [0 0 0 0] ------- [48:255 -1:255 32 0] 
r 0.516059341 _47_ RTR  --- 16 message 32 [0 ffffffff 30 800] ------- [48:255 -1:255 32 0] 
r 0.516059385 _9_ RTR  --- 16 message 32 [0 ffffffff 30 800] ------- [48:255 -1:255 32 0] 
r 0.516059501 _0_ RTR  --- 16 message 32 [0 ffffffff 30 800] ------- [48:255 -1:255 32 0] 
r 0.516059593 _6_ RTR  --- 16 message 32 [0 ffffffff 30 800] ------- [48:255 -1:255 32 0] 
r 0.516059707 _20_ RTR  --- 16 message 32 [0 ffffffff 30 800] ------- [48:255 -1:255 32 0] 
r 0.516059721 _44_ RTR  --- 16 message 32 [0 ffffffff 30 800] ------- [48:255 -1:255 32 0] 
r 0.516059773 _49_ RTR  --- 16 message 32 [0 ffffffff 30 800] ------- [48:255 -1:255 32 0] 
r 0.516059901 _43_ RTR  --- 16 message 32 [0 ffffffff 30 800] ------- [48:255 -1:255 32 0] 
r 0.516059927 _38_ RTR  --- 16 message 32 [0 ffffffff 30 800] ------- [48:255 -1:255 32 0] 
r 0.516059967 _13_ RTR  --- 16 message 32 [0 ffffffff 30 800] ------- [48:255 -1:255 32 0] 
r 0.516060021 _35_ RTR  --- 16 message 32 [0 ffffffff 30 800] ------- [48:255 -1:255 32 0] 
r 0.516060027 _2_ RTR  --- 16 message 32 [0 ffffffff 30 800] ------- [48:255 -1:255 32 0] 
r 0.516060082 _41_ RTR  --- 16 message 32 [0 ffffffff 30 800] ------- [48:255 -1:255 32 0] 
s 0.520405222 _21_ RTR  --- 17 message 32 [0 0 0 0] ------- [21:255 -1:255 32 0] 
r 0.521605432 _30_ RTR  --- 17 message 32 [0 ffffffff 15 800] ------- [21:255 -1:255 32 0] 
r 0.521605463 _32_ RTR  --- 17 message 32 [0 ffffffff 15 800] ------- [21:255 -1:255 32 0] 
r 0.521605510 _22_ RTR  --- 17 message 32 [0 ffffffff 15 800] ------- [21:255 -1:255 32 0] 
r 0.521605516 _16_ RTR  --- 17 message 32 [0 ffffffff 15 800] ------- [21:255 -1:255 32 0] 
r 0.521605641 _36_ RTR  --- 17 message 32 [0 ffffffff 15 800] ------- [21:255 -1:255 32 0] 
r 0.521605657 _14_ RTR  --- 17 message 32 [0 ffffffff 15 800] ------- [21:255 -1:255 32 0] 